# vtk DataFile Version 3.0
Finite Elements Method
ASCII
DATASET UNSTRUCTURED_GRID
POINTS 101 double
0 0 0
0.01 0 0
0.02 0 0
0.03 0 0
0.04 0 0
0.05 0 0
0.06 0 0
0.07 0 0
0.08 0 0
0.09 0 0
0.1 0 0
0.11 0 0
0.12 0 0
0.13 0 0
0.14 0 0
0.15 0 0
0.16 0 0
0.17 0 0
0.18 0 0
0.19 0 0
0.2 0 0
0.21 0 0
0.22 0 0
0.23 0 0
0.24 0 0
0.25 0 0
0.26 0 0
0.27 0 0
0.28 0 0
0.29 0 0
0.3 0 0
0.31 0 0
0.32 0 0
0.33 0 0
0.34 0 0
0.35 0 0
0.36 0 0
0.37 0 0
0.38 0 0
0.39 0 0
0.4 0 0
0.41 0 0
0.42 0 0
0.43 0 0
0.44 0 0
0.45 0 0
0.46 0 0
0.47 0 0
0.48 0 0
0.49 0 0
0.5 0 0
0.51 0 0
0.52 0 0
0.53 0 0
0.54 0 0
0.55 0 0
0.56 0 0
0.57 0 0
0.58 0 0
0.59 0 0
0.6 0 0
0.61 0 0
0.62 0 0
0.63 0 0
0.64 0 0
0.65 0 0
0.66 0 0
0.67 0 0
0.68 0 0
0.69 0 0
0.7 0 0
0.71 0 0
0.72 0 0
0.73 0 0
0.74 0 0
0.75 0 0
0.76 0 0
0.77 0 0
0.78 0 0
0.79 0 0
0.8 0 0
0.81 0 0
0.82 0 0
0.83 0 0
0.84 0 0
0.85 0 0
0.86 0 0
0.87 0 0
0.88 0 0
0.89 0 0
0.9 0 0
0.91 0 0
0.92 0 0
0.93 0 0
0.94 0 0
0.95 0 0
0.96 0 0
0.97 0 0
0.98 0 0
0.99 0 0
1 0 0
CELLS 100 300
2 0 1
2 1 2
2 2 3
2 3 4
2 4 5
2 5 6
2 6 7
2 7 8
2 8 9
2 9 10
2 10 11
2 11 12
2 12 13
2 13 14
2 14 15
2 15 16
2 16 17
2 17 18
2 18 19
2 19 20
2 20 21
2 21 22
2 22 23
2 23 24
2 24 25
2 25 26
2 26 27
2 27 28
2 28 29
2 29 30
2 30 31
2 31 32
2 32 33
2 33 34
2 34 35
2 35 36
2 36 37
2 37 38
2 38 39
2 39 40
2 40 41
2 41 42
2 42 43
2 43 44
2 44 45
2 45 46
2 46 47
2 47 48
2 48 49
2 49 50
2 50 51
2 51 52
2 52 53
2 53 54
2 54 55
2 55 56
2 56 57
2 57 58
2 58 59
2 59 60
2 60 61
2 61 62
2 62 63
2 63 64
2 64 65
2 65 66
2 66 67
2 67 68
2 68 69
2 69 70
2 70 71
2 71 72
2 72 73
2 73 74
2 74 75
2 75 76
2 76 77
2 77 78
2 78 79
2 79 80
2 80 81
2 81 82
2 82 83
2 83 84
2 84 85
2 85 86
2 86 87
2 87 88
2 88 89
2 89 90
2 90 91
2 91 92
2 92 93
2 93 94
2 94 95
2 95 96
2 96 97
2 97 98
2 98 99
2 99 100
CELL_TYPES 100
3
3
3
3
3
3
3
3
3
3
3
3
3
3
3
3
3
3
3
3
3
3
3
3
3
3
3
3
3
3
3
3
3
3
3
3
3
3
3
3
3
3
3
3
3
3
3
3
3
3
3
3
3
3
3
3
3
3
3
3
3
3
3
3
3
3
3
3
3
3
3
3
3
3
3
3
3
3
3
3
3
3
3
3
3
3
3
3
3
3
3
3
3
3
3
3
3
3
3
3
POINT_DATA 101
SCALARS scalars double 1
LOOKUP_TABLE default
0.352274
0.38656
0.421952
0.458311
0.495483
0.533292
0.571541
0.610013
0.648467
0.686642
0.724252
0.760989
0.796521
0.830496
0.862541
0.892264
0.919256
0.943095
0.963347
0.979573
0.991333
0.998189
0.999713
0.995495
0.985149
0.968318
0.944691
0.914003
0.87605
0.830697
0.777889
0.71766
0.650139
0.575567
0.494298
0.406807
0.313698
0.215707
0.113703
0.00868531
-0.0982161
-0.20575
-0.312552
-0.41716
-0.51803
-0.613557
-0.702102
-0.782017
-0.851681
-0.909532
-0.954108
-0.984086
-0.998323
-0.995897
-0.976151
-0.93873
-0.883617
-0.811162
-0.722113
-0.617625
-0.499275
-0.369053
-0.229352
-0.08294
0.0670851
0.217345
0.364254
0.504099
0.633132
0.747679
0.844249
0.919654
0.971128
0.996443
0.994023
0.96304
0.903498
0.816293
0.703254
0.567139
0.411617
0.241195
0.0611201
-0.122758
-0.304167
-0.476614
-0.633622
-0.768981
-0.877013
-0.952835
-0.992607
-0.993766
-0.955211
-0.877444
-0.762653
-0.614715
-0.439133
-0.24288
-0.0341671
0.177868
0.383543
